ITEM: TIMESTEP
0
ITEM: NUMBER OF SURFS
824
ITEM: BOX BOUNDS rr rr rr
-2 2
-2 2
-2 2
ITEM: SURFS id v1x v1y v1z v2x v2y v2z v3x v3y v3z f_f[1] f_f[2] 
1 -0.4 -0.459438 -0.8 -0.459438 -0.4 -0.8 -0.4 -0.4 -0.847665 0 0 
2 -0.2 -0.4 -0.888 -0.2 -0.55098 -0.8 -0.4 -0.4 -0.847665 0 0 
3 -0.4 -0.4 -0.847665 -0.2 -0.55098 -0.8 -0.4 -0.459438 -0.8 0 0 
4 0 -0.4 -0.934286 0 -0.564912 -0.8 -0.2 -0.4 -0.888 0 0 
5 -0.2 -0.4 -0.888 0 -0.564912 -0.8 -0.2 -0.55098 -0.8 0 0 
6 0.2 -0.4 -0.888 0.2 -0.55098 -0.8 0 -0.4 -0.934286 0 0 
7 0 -0.4 -0.934286 0.2 -0.55098 -0.8 0 -0.564912 -0.8 0 0 
8 0.4 -0.4 -0.847665 0.4 -0.459438 -0.8 0.2 -0.4 -0.888 0 0 
9 0.2 -0.4 -0.888 0.4 -0.459438 -0.8 0.2 -0.55098 -0.8 0 0 
10 0.4 -0.4 -0.847665 0.459438 -0.4 -0.8 0.4 -0.459438 -0.8 0 0 
11 -0.4 -0.4 -0.847665 -0.459438 -0.4 -0.8 -0.4 -0.2 -0.888 0 0 
12 -0.4 -0.2 -0.888 -0.459438 -0.4 -0.8 -0.55098 -0.2 -0.8 0 0 
13 -0.4 -0.4 -0.847665 -0.2 -0.2 -0.942857 -0.2 -0.4 -0.888 0 0 
14 -0.4 -0.4 -0.847665 -0.4 -0.2 -0.888 -0.2 -0.2 -0.942857 0 0 
15 -0.2 -0.4 -0.888 0 -0.2 -0.942857 0 -0.4 -0.934286 0 0 
16 -0.2 -0.4 -0.888 -0.2 -0.2 -0.942857 0 -0.2 -0.942857 0 0 
17 0 -0.4 -0.934286 0.2 -0.2 -0.942857 0.2 -0.4 -0.888 0 0 
18 0 -0.4 -0.934286 0 -0.2 -0.942857 0.2 -0.2 -0.942857 0 0 
19 0.2 -0.4 -0.888 0.4 -0.2 -0.888 0.4 -0.4 -0.847665 0 0 
20 0.2 -0.4 -0.888 0.2 -0.2 -0.942857 0.4 -0.2 -0.888 0 0 
21 0.459438 -0.4 -0.8 0.4 -0.4 -0.847665 0.55098 -0.2 -0.8 0 0 
22 0.55098 -0.2 -0.8 0.4 -0.4 -0.847665 0.4 -0.2 -0.888 0 0 
23 -0.4 -0.2 -0.888 -0.55098 -0.2 -0.8 -0.4 0 -0.934286 0 0 
24 -0.4 0 -0.934286 -0.55098 -0.2 -0.8 -0.564912 0 -0.8 0 0 
25 -0.4 -0.2 -0.888 -0.2 0 -0.942857 -0.2 -0.2 -0.942857 0 0 
26 -0.4 -0.2 -0.888 -0.4 0 -0.934286 -0.2 0 -0.942857 0 0 
27 -0.2 -0.2 -0.942857 0 0 -0.942857 0 -0.2 -0.942857 0 0 
28 -0.2 -0.2 -0.942857 -0.2 0 -0.942857 0 0 -0.942857 0 0 
29 0 -0.2 -0.942857 0.2 0 -0.942857 0.2 -0.2 -0.942857 0 0 
30 0 -0.2 -0.942857 0 0 -0.942857 0.2 0 -0.942857 0 0 
31 0.2 -0.2 -0.942857 0.4 0 -0.934286 0.4 -0.2 -0.888 0 0 
32 0.2 -0.2 -0.942857 0.2 0 -0.942857 0.4 0 -0.934286 0 0 
33 0.55098 -0.2 -0.8 0.4 -0.2 -0.888 0.564912 0 -0.8 0 0 
34 0.564912 0 -0.8 0.4 -0.2 -0.888 0.4 0 -0.934286 0 0 
35 -0.4 0 -0.934286 -0.564912 0 -0.8 -0.4 0.2 -0.888 0 0 
36 -0.4 0.2 -0.888 -0.564912 0 -0.8 -0.55098 0.2 -0.8 0 0 
37 -0.4 0 -0.934286 -0.2 0.2 -0.942857 -0.2 0 -0.942857 0 0 
38 -0.4 0 -0.934286 -0.4 0.2 -0.888 -0.2 0.2 -0.942857 0 0 
39 -0.2 0 -0.942857 0 0.2 -0.942857 0 0 -0.942857 0 0 
40 -0.2 0 -0.942857 -0.2 0.2 -0.942857 0 0.2 -0.942857 0 0 
41 0 0 -0.942857 0.2 0.2 -0.942857 0.2 0 -0.942857 0 0 
42 0 0 -0.942857 0 0.2 -0.942857 0.2 0.2 -0.942857 0 0 
43 0.2 0 -0.942857 0.4 0.2 -0.888 0.4 0 -0.934286 0 0 
44 0.2 0 -0.942857 0.2 0.2 -0.942857 0.4 0.2 -0.888 0 0 
45 0.564912 0 -0.8 0.4 0 -0.934286 0.55098 0.2 -0.8 0 0 
46 0.55098 0.2 -0.8 0.4 0 -0.934286 0.4 0.2 -0.888 0 0 
47 -0.4 0.2 -0.888 -0.55098 0.2 -0.8 -0.4 0.4 -0.847665 0 0 
48 -0.4 0.4 -0.847665 -0.55098 0.2 -0.8 -0.459438 0.4 -0.8 0 0 
49 -0.4 0.2 -0.888 -0.2 0.4 -0.888 -0.2 0.2 -0.942857 0 0 
50 -0.4 0.2 -0.888 -0.4 0.4 -0.847665 -0.2 0.4 -0.888 0 0 
51 -0.2 0.2 -0.942857 0 0.4 -0.934286 0 0.2 -0.942857 0 0 
52 -0.2 0.2 -0.942857 -0.2 0.4 -0.888 0 0.4 -0.934286 0 0 
53 0 0.2 -0.942857 0.2 0.4 -0.888 0.2 0.2 -0.942857 0 0 
54 0 0.2 -0.942857 0 0.4 -0.934286 0.2 0.4 -0.888 0 0 
55 0.2 0.2 -0.942857 0.4 0.4 -0.847665 0.4 0.2 -0.888 0 0 
56 0.2 0.2 -0.942857 0.2 0.4 -0.888 0.4 0.4 -0.847665 0 0 
57 0.55098 0.2 -0.8 0.4 0.2 -0.888 0.459438 0.4 -0.8 0 0 
58 0.459438 0.4 -0.8 0.4 0.2 -0.888 0.4 0.4 -0.847665 0 0 
59 -0.459438 0.4 -0.8 -0.4 0.459438 -0.8 -0.4 0.4 -0.847665 0 0 
60 -0.4 0.4 -0.847665 -0.4 0.459438 -0.8 -0.2 0.4 -0.888 0 0 
61 -0.2 0.4 -0.888 -0.4 0.459438 -0.8 -0.2 0.55098 -0.8 0 0 
62 -0.2 0.4 -0.888 -0.2 0.55098 -0.8 0 0.4 -0.934286 0 0 
63 0 0.4 -0.934286 -0.2 0.55098 -0.8 0 0.564912 -0.8 0 0 
64 0 0.4 -0.934286 0 0.564912 -0.8 0.2 0.4 -0.888 0 0 
65 0.2 0.4 -0.888 0 0.564912 -0.8 0.2 0.55098 -0.8 0 0 
66 0.2 0.4 -0.888 0.2 0.55098 -0.8 0.4 0.4 -0.847665 0 0 
67 0.4 0.4 -0.847665 0.2 0.55098 -0.8 0.4 0.459438 -0.8 0 0 
68 0.4 0.4 -0.847665 0.4 0.459438 -0.8 0.459438 0.4 -0.8 0 0 
69 -0.4 -0.688 -0.6 -0.484615 -0.6 -0.6 -0.4 -0.6 -0.688 0 0 
70 -0.2 -0.6 -0.766667 -0.2 -0.766667 -0.6 -0.4 -0.6 -0.688 0 0 
71 -0.4 -0.6 -0.688 -0.2 -0.766667 -0.6 -0.4 -0.688 -0.6 0 0 
72 0 -0.6 -0.766667 0 -0.766667 -0.6 -0.2 -0.6 -0.766667 0 0 
73 -0.2 -0.6 -0.766667 0 -0.766667 -0.6 -0.2 -0.766667 -0.6 0 0 
74 0.2 -0.6 -0.766667 0.2 -0.766667 -0.6 0 -0.6 -0.766667 0 0 
75 0 -0.6 -0.766667 0.2 -0.766667 -0.6 0 -0.766667 -0.6 0 0 
76 0.4 -0.6 -0.688 0.4 -0.688 -0.6 0.2 -0.6 -0.766667 0 0 
77 0.2 -0.6 -0.766667 0.4 -0.688 -0.6 0.2 -0.766667 -0.6 0 0 
78 0.4 -0.6 -0.688 0.484615 -0.6 -0.6 0.4 -0.688 -0.6 0 0 
79 -0.6 -0.484615 -0.6 -0.688 -0.4 -0.6 -0.6 -0.4 -0.688 0 0 
80 -0.6 -0.484615 -0.6 -0.6 -0.4 -0.688 -0.484615 -0.6 -0.6 0 0 
81 -0.484615 -0.6 -0.6 -0.6 -0.4 -0.688 -0.4 -0.6 -0.688 0 0 
82 -0.6 -0.4 -0.688 -0.459438 -0.4 -0.8 -0.4 -0.6 -0.688 0 0 
83 -0.459438 -0.4 -0.8 -0.4 -0.459438 -0.8 -0.4 -0.6 -0.688 0 0 
84 -0.4 -0.6 -0.688 -0.4 -0.459438 -0.8 -0.2 -0.55098 -0.8 0 0 
85 -0.4 -0.6 -0.688 -0.2 -0.55098 -0.8 -0.2 -0.6 -0.766667 0 0 
86 -0.2 -0.6 -0.766667 -0.2 -0.55098 -0.8 0 -0.564912 -0.8 0 0 
87 -0.2 -0.6 -0.766667 0 -0.564912 -0.8 0 -0.6 -0.766667 0 0 
88 0 -0.6 -0.766667 0 -0.564912 -0.8 0.2 -0.55098 -0.8 0 0 
89 0 -0.6 -0.766667 0.2 -0.55098 -0.8 0.2 -0.6 -0.766667 0 0 
90 0.2 -0.6 -0.766667 0.2 -0.55098 -0.8 0.4 -0.459438 -0.8 0 0 
91 0.2 -0.6 -0.766667 0.4 -0.459438 -0.8 0.4 -0.6 -0.688 0 0 
92 0.6 -0.4 -0.688 0.6 -0.484615 -0.6 0.459438 -0.4 -0.8 0 0 
93 0.459438 -0.4 -0.8 0.6 -0.484615 -0.6 0.4 -0.459438 -0.8 0 0 
94 0.6 -0.484615 -0.6 0.484615 -0.6 -0.6 0.4 -0.459438 -0.8 0 0 
95 0.484615 -0.6 -0.6 0.4 -0.6 -0.688 0.4 -0.459438 -0.8 0 0 
96 0.6 -0.4 -0.688 0.688 -0.4 -0.6 0.6 -0.484615 -0.6 0 0 
97 -0.6 -0.4 -0.688 -0.688 -0.4 -0.6 -0.6 -0.2 -0.766667 0 0 
98 -0.6 -0.2 -0.766667 -0.688 -0.4 -0.6 -0.766667 -0.2 -0.6 0 0 
99 -0.6 -0.2 -0.766667 -0.55098 -0.2 -0.8 -0.459438 -0.4 -0.8 0 0 
100 -0.6 -0.2 -0.766667 -0.459438 -0.4 -0.8 -0.6 -0.4 -0.688 0 0 
101 0.55098 -0.2 -0.8 0.6 -0.2 -0.766667 0.6 -0.4 -0.688 0 0 
102 0.55098 -0.2 -0.8 0.6 -0.4 -0.688 0.459438 -0.4 -0.8 0 0 
103 0.688 -0.4 -0.6 0.6 -0.4 -0.688 0.766667 -0.2 -0.6 0 0 
104 0.766667 -0.2 -0.6 0.6 -0.4 -0.688 0.6 -0.2 -0.766667 0 0 
105 -0.6 -0.2 -0.766667 -0.766667 -0.2 -0.6 -0.6 0 -0.766667 0 0 
106 -0.6 0 -0.766667 -0.766667 -0.2 -0.6 -0.766667 0 -0.6 0 0 
107 -0.6 0 -0.766667 -0.564912 0 -0.8 -0.55098 -0.2 -0.8 0 0 
108 -0.6 0 -0.766667 -0.55098 -0.2 -0.8 -0.6 -0.2 -0.766667 0 0 
109 0.564912 0 -0.8 0.6 0 -0.766667 0.6 -0.2 -0.766667 0 0 
110 0.564912 0 -0.8 0.6 -0.2 -0.766667 0.55098 -0.2 -0.8 0 0 
111 0.766667 -0.2 -0.6 0.6 -0.2 -0.766667 0.766667 0 -0.6 0 0 
112 0.766667 0 -0.6 0.6 -0.2 -0.766667 0.6 0 -0.766667 0 0 
113 -0.6 0 -0.766667 -0.766667 0 -0.6 -0.6 0.2 -0.766667 0 0 
114 -0.6 0.2 -0.766667 -0.766667 0 -0.6 -0.766667 0.2 -0.6 0 0 
115 -0.6 0.2 -0.766667 -0.55098 0.2 -0.8 -0.564912 0 -0.8 0 0 
116 -0.6 0.2 -0.766667 -0.564912 0 -0.8 -0.6 0 -0.766667 0 0 
117 0.55098 0.2 -0.8 0.6 0.2 -0.766667 0.6 0 -0.766667 0 0 
118 0.55098 0.2 -0.8 0.6 0 -0.766667 0.564912 0 -0.8 0 0 
119 0.766667 0 -0.6 0.6 0 -0.766667 0.766667 0.2 -0.6 0 0 
120 0.766667 0.2 -0.6 0.6 0 -0.766667 0.6 0.2 -0.766667 0 0 
121 -0.6 0.2 -0.766667 -0.766667 0.2 -0.6 -0.6 0.4 -0.688 0 0 
122 -0.6 0.4 -0.688 -0.766667 0.2 -0.6 -0.688 0.4 -0.6 0 0 
123 -0.6 0.4 -0.688 -0.459438 0.4 -0.8 -0.55098 0.2 -0.8 0 0 
124 -0.6 0.4 -0.688 -0.55098 0.2 -0.8 -0.6 0.2 -0.766667 0 0 
125 0.459438 0.4 -0.8 0.6 0.4 -0.688 0.6 0.2 -0.766667 0 0 
126 0.459438 0.4 -0.8 0.6 0.2 -0.766667 0.55098 0.2 -0.8 0 0 
127 0.766667 0.2 -0.6 0.6 0.2 -0.766667 0.688 0.4 -0.6 0 0 
128 0.688 0.4 -0.6 0.6 0.2 -0.766667 0.6 0.4 -0.688 0 0 
129 -0.688 0.4 -0.6 -0.6 0.484615 -0.6 -0.6 0.4 -0.688 0 0 
130 -0.6 0.484615 -0.6 -0.484615 0.6 -0.6 -0.4 0.6 -0.688 0 0 
131 -0.6 0.484615 -0.6 -0.4 0.6 -0.688 -0.4 0.459438 -0.8 0 0 
132 -0.6 0.4 -0.688 -0.6 0.484615 -0.6 -0.4 0.459438 -0.8 0 0 
133 -0.459438 0.4 -0.8 -0.6 0.4 -0.688 -0.4 0.459438 -0.8 0 0 
134 -0.2 0.6 -0.766667 -0.2 0.55098 -0.8 -0.4 0.459438 -0.8 0 0 
135 -0.2 0.6 -0.766667 -0.4 0.459438 -0.8 -0.4 0.6 -0.688 0 0 
136 0 0.6 -0.766667 0 0.564912 -0.8 -0.2 0.55098 -0.8 0 0 
137 0 0.6 -0.766667 -0.2 0.55098 -0.8 -0.2 0.6 -0.766667 0 0 
138 0.2 0.6 -0.766667 0.2 0.55098 -0.8 0 0.564912 -0.8 0 0 
139 0.2 0.6 -0.766667 0 0.564912 -0.8 0 0.6 -0.766667 0 0 
140 0.4 0.6 -0.688 0.4 0.459438 -0.8 0.2 0.55098 -0.8 0 0 
141 0.4 0.6 -0.688 0.2 0.55098 -0.8 0.2 0.6 -0.766667 0 0 
142 0.4 0.6 -0.688 0.484615 0.6 -0.6 0.4 0.459438 -0.8 0 0 
143 0.4 0.459438 -0.8 0.484615 0.6 -0.6 0.459438 0.4 -0.8 0 0 
144 0.484615 0.6 -0.6 0.6 0.484615 -0.6 0.459438 0.4 -0.8 0 0 
145 0.6 0.484615 -0.6 0.6 0.4 -0.688 0.459438 0.4 -0.8 0 0 
146 0.6 0.4 -0.688 0.6 0.484615 -0.6 0.688 0.4 -0.6 0 0 
147 -0.484615 0.6 -0.6 -0.4 0.688 -0.6 -0.4 0.6 -0.688 0 0 
148 -0.4 0.6 -0.688 -0.4 0.688 -0.6 -0.2 0.6 -0.766667 0 0 
149 -0.2 0.6 -0.766667 -0.4 0.688 -0.6 -0.2 0.766667 -0.6 0 0 
150 -0.2 0.6 -0.766667 -0.2 0.766667 -0.6 0 0.6 -0.766667 0 0 
151 0 0.6 -0.766667 -0.2 0.766667 -0.6 0 0.766667 -0.6 0 0 
152 0 0.6 -0.766667 0 0.766667 -0.6 0.2 0.6 -0.766667 0 0 
153 0.2 0.6 -0.766667 0 0.766667 -0.6 0.2 0.766667 -0.6 0 0 
154 0.2 0.6 -0.766667 0.2 0.766667 -0.6 0.4 0.6 -0.688 0 0 
155 0.4 0.6 -0.688 0.2 0.766667 -0.6 0.4 0.688 -0.6 0 0 
156 0.4 0.6 -0.688 0.4 0.688 -0.6 0.484615 0.6 -0.6 0 0 
157 -0.4 -0.847665 -0.4 -0.459438 -0.8 -0.4 -0.4 -0.8 -0.459438 0 0 
158 -0.2 -0.8 -0.55098 -0.2 -0.888 -0.4 -0.4 -0.8 -0.459438 0 0 
159 -0.4 -0.8 -0.459438 -0.2 -0.888 -0.4 -0.4 -0.847665 -0.4 0 0 
160 0 -0.8 -0.564912 0 -0.934286 -0.4 -0.2 -0.8 -0.55098 0 0 
161 -0.2 -0.8 -0.55098 0 -0.934286 -0.4 -0.2 -0.888 -0.4 0 0 
162 0.2 -0.8 -0.55098 0.2 -0.888 -0.4 0 -0.8 -0.564912 0 0 
163 0 -0.8 -0.564912 0.2 -0.888 -0.4 0 -0.934286 -0.4 0 0 
164 0.4 -0.8 -0.459438 0.4 -0.847665 -0.4 0.2 -0.8 -0.55098 0 0 
165 0.2 -0.8 -0.55098 0.4 -0.847665 -0.4 0.2 -0.888 -0.4 0 0 
166 0.4 -0.8 -0.459438 0.459438 -0.8 -0.4 0.4 -0.847665 -0.4 0 0 
167 -0.6 -0.688 -0.4 -0.688 -0.6 -0.4 -0.6 -0.6 -0.484615 0 0 
168 -0.6 -0.688 -0.4 -0.6 -0.6 -0.484615 -0.459438 -0.8 -0.4 0 0 
169 -0.459438 -0.8 -0.4 -0.6 -0.6 -0.484615 -0.4 -0.8 -0.459438 0 0 
170 -0.6 -0.6 -0.484615 -0.484615 -0.6 -0.6 -0.4 -0.8 -0.459438 0 0 
171 -0.484615 -0.6 -0.6 -0.4 -0.688 -0.6 -0.4 -0.8 -0.459438 0 0 
172 -0.4 -0.8 -0.459438 -0.4 -0.688 -0.6 -0.2 -0.766667 -0.6 0 0 
173 -0.4 -0.8 -0.459438 -0.2 -0.766667 -0.6 -0.2 -0.8 -0.55098 0 0 
174 -0.2 -0.8 -0.55098 -0.2 -0.766667 -0.6 0 -0.766667 -0.6 0 0 
175 -0.2 -0.8 -0.55098 0 -0.766667 -0.6 0 -0.8 -0.564912 0 0 
176 0 -0.8 -0.564912 0 -0.766667 -0.6 0.2 -0.766667 -0.6 0 0 
177 0 -0.8 -0.564912 0.2 -0.766667 -0.6 0.2 -0.8 -0.55098 0 0 
178 0.2 -0.8 -0.55098 0.2 -0.766667 -0.6 0.4 -0.688 -0.6 0 0 
179 0.2 -0.8 -0.55098 0.4 -0.688 -0.6 0.4 -0.8 -0.459438 0 0 
180 0.6 -0.6 -0.484615 0.6 -0.688 -0.4 0.484615 -0.6 -0.6 0 0 
181 0.484615 -0.6 -0.6 0.6 -0.688 -0.4 0.4 -0.688 -0.6 0 0 
182 0.6 -0.688 -0.4 0.459438 -0.8 -0.4 0.4 -0.688 -0.6 0 0 
183 0.459438 -0.8 -0.4 0.4 -0.8 -0.459438 0.4 -0.688 -0.6 0 0 
184 0.6 -0.6 -0.484615 0.688 -0.6 -0.4 0.6 -0.688 -0.4 0 0 
185 -0.8 -0.459438 -0.4 -0.847665 -0.4 -0.4 -0.8 -0.4 -0.459438 0 0 
186 -0.8 -0.459438 -0.4 -0.8 -0.4 -0.459438 -0.688 -0.6 -0.4 0 0 
187 -0.688 -0.6 -0.4 -0.8 -0.4 -0.459438 -0.6 -0.6 -0.484615 0 0 
188 -0.8 -0.4 -0.459438 -0.688 -0.4 -0.6 -0.6 -0.6 -0.484615 0 0 
189 -0.688 -0.4 -0.6 -0.6 -0.484615 -0.6 -0.6 -0.6 -0.484615 0 0 
190 -0.6 -0.6 -0.484615 -0.6 -0.484615 -0.6 -0.484615 -0.6 -0.6 0 0 
191 0.6 -0.484615 -0.6 0.6 -0.6 -0.484615 0.484615 -0.6 -0.6 0 0 
192 0.8 -0.4 -0.459438 0.8 -0.459438 -0.4 0.688 -0.4 -0.6 0 0 
193 0.688 -0.4 -0.6 0.8 -0.459438 -0.4 0.6 -0.484615 -0.6 0 0 
194 0.8 -0.459438 -0.4 0.688 -0.6 -0.4 0.6 -0.484615 -0.6 0 0 
195 0.688 -0.6 -0.4 0.6 -0.6 -0.484615 0.6 -0.484615 -0.6 0 0 
196 0.8 -0.4 -0.459438 0.847665 -0.4 -0.4 0.8 -0.459438 -0.4 0 0 
197 -0.8 -0.4 -0.459438 -0.847665 -0.4 -0.4 -0.8 -0.2 -0.55098 0 0 
198 -0.8 -0.2 -0.55098 -0.847665 -0.4 -0.4 -0.888 -0.2 -0.4 0 0 
199 -0.8 -0.2 -0.55098 -0.766667 -0.2 -0.6 -0.688 -0.4 -0.6 0 0 
200 -0.8 -0.2 -0.55098 -0.688 -0.4 -0.6 -0.8 -0.4 -0.459438 0 0 
201 0.766667 -0.2 -0.6 0.8 -0.2 -0.55098 0.8 -0.4 -0.459438 0 0 
202 0.766667 -0.2 -0.6 0.8 -0.4 -0.459438 0.688 -0.4 -0.6 0 0 
203 0.847665 -0.4 -0.4 0.8 -0.4 -0.459438 0.888 -0.2 -0.4 0 0 
204 0.888 -0.2 -0.4 0.8 -0.4 -0.459438 0.8 -0.2 -0.55098 0 0 
205 -0.8 -0.2 -0.55098 -0.888 -0.2 -0.4 -0.8 0 -0.564912 0 0 
206 -0.8 0 -0.564912 -0.888 -0.2 -0.4 -0.934286 0 -0.4 0 0 
207 -0.8 0 -0.564912 -0.766667 0 -0.6 -0.766667 -0.2 -0.6 0 0 
208 -0.8 0 -0.564912 -0.766667 -0.2 -0.6 -0.8 -0.2 -0.55098 0 0 
209 0.766667 0 -0.6 0.8 0 -0.564912 0.8 -0.2 -0.55098 0 0 
210 0.766667 0 -0.6 0.8 -0.2 -0.55098 0.766667 -0.2 -0.6 0 0 
211 0.888 -0.2 -0.4 0.8 -0.2 -0.55098 0.934286 0 -0.4 0 0 
212 0.934286 0 -0.4 0.8 -0.2 -0.55098 0.8 0 -0.564912 0 0 
213 -0.8 0 -0.564912 -0.934286 0 -0.4 -0.8 0.2 -0.55098 0 0 
214 -0.8 0.2 -0.55098 -0.934286 0 -0.4 -0.888 0.2 -0.4 0 0 
215 -0.8 0.2 -0.55098 -0.766667 0.2 -0.6 -0.766667 0 -0.6 0 0 
216 -0.8 0.2 -0.55098 -0.766667 0 -0.6 -0.8 0 -0.564912 0 0 
217 0.766667 0.2 -0.6 0.8 0.2 -0.55098 0.8 0 -0.564912 0 0 
218 0.766667 0.2 -0.6 0.8 0 -0.564912 0.766667 0 -0.6 0 0 
219 0.934286 0 -0.4 0.8 0 -0.564912 0.888 0.2 -0.4 0 0 
220 0.888 0.2 -0.4 0.8 0 -0.564912 0.8 0.2 -0.55098 0 0 
221 -0.8 0.2 -0.55098 -0.888 0.2 -0.4 -0.8 0.4 -0.459438 0 0 
222 -0.8 0.4 -0.459438 -0.888 0.2 -0.4 -0.847665 0.4 -0.4 0 0 
223 -0.8 0.4 -0.459438 -0.688 0.4 -0.6 -0.766667 0.2 -0.6 0 0 
224 -0.8 0.4 -0.459438 -0.766667 0.2 -0.6 -0.8 0.2 -0.55098 0 0 
225 0.688 0.4 -0.6 0.8 0.4 -0.459438 0.8 0.2 -0.55098 0 0 
226 0.688 0.4 -0.6 0.8 0.2 -0.55098 0.766667 0.2 -0.6 0 0 
227 0.888 0.2 -0.4 0.8 0.2 -0.55098 0.847665 0.4 -0.4 0 0 
228 0.847665 0.4 -0.4 0.8 0.2 -0.55098 0.8 0.4 -0.459438 0 0 
229 -0.847665 0.4 -0.4 -0.8 0.459438 -0.4 -0.8 0.4 -0.459438 0 0 
230 -0.8 0.459438 -0.4 -0.688 0.6 -0.4 -0.6 0.6 -0.484615 0 0 
231 -0.8 0.459438 -0.4 -0.6 0.6 -0.484615 -0.6 0.484615 -0.6 0 0 
232 -0.8 0.4 -0.459438 -0.8 0.459438 -0.4 -0.6 0.484615 -0.6 0 0 
233 -0.688 0.4 -0.6 -0.8 0.4 -0.459438 -0.6 0.484615 -0.6 0 0 
234 -0.6 0.6 -0.484615 -0.484615 0.6 -0.6 -0.6 0.484615 -0.6 0 0 
235 0.484615 0.6 -0.6 0.6 0.6 -0.484615 0.6 0.484615 -0.6 0 0 
236 0.6 0.6 -0.484615 0.688 0.6 -0.4 0.6 0.484615 -0.6 0 0 
237 0.6 0.484615 -0.6 0.688 0.6 -0.4 0.688 0.4 -0.6 0 0 
238 0.688 0.6 -0.4 0.8 0.459438 -0.4 0.688 0.4 -0.6 0 0 
239 0.8 0.459438 -0.4 0.8 0.4 -0.459438 0.688 0.4 -0.6 0 0 
240 0.8 0.4 -0.459438 0.8 0.459438 -0.4 0.847665 0.4 -0.4 0 0 
241 -0.688 0.6 -0.4 -0.6 0.688 -0.4 -0.6 0.6 -0.484615 0 0 
242 -0.6 0.688 -0.4 -0.459438 0.8 -0.4 -0.4 0.8 -0.459438 0 0 
243 -0.6 0.688 -0.4 -0.4 0.8 -0.459438 -0.4 0.688 -0.6 0 0 
244 -0.6 0.6 -0.484615 -0.6 0.688 -0.4 -0.4 0.688 -0.6 0 0 
245 -0.484615 0.6 -0.6 -0.6 0.6 -0.484615 -0.4 0.688 -0.6 0 0 
246 -0.2 0.8 -0.55098 -0.2 0.766667 -0.6 -0.4 0.688 -0.6 0 0 
247 -0.2 0.8 -0.55098 -0.4 0.688 -0.6 -0.4 0.8 -0.459438 0 0 
248 0 0.8 -0.564912 0 0.766667 -0.6 -0.2 0.766667 -0.6 0 0 
249 0 0.8 -0.564912 -0.2 0.766667 -0.6 -0.2 0.8 -0.55098 0 0 
250 0.2 0.8 -0.55098 0.2 0.766667 -0.6 0 0.766667 -0.6 0 0 
251 0.2 0.8 -0.55098 0 0.766667 -0.6 0 0.8 -0.564912 0 0 
252 0.4 0.8 -0.459438 0.4 0.688 -0.6 0.2 0.766667 -0.6 0 0 
253 0.4 0.8 -0.459438 0.2 0.766667 -0.6 0.2 0.8 -0.55098 0 0 
254 0.4 0.8 -0.459438 0.459438 0.8 -0.4 0.4 0.688 -0.6 0 0 
255 0.4 0.688 -0.6 0.459438 0.8 -0.4 0.484615 0.6 -0.6 0 0 
256 0.459438 0.8 -0.4 0.6 0.688 -0.4 0.484615 0.6 -0.6 0 0 
257 0.6 0.688 -0.4 0.6 0.6 -0.484615 0.484615 0.6 -0.6 0 0 
258 0.6 0.6 -0.484615 0.6 0.688 -0.4 0.688 0.6 -0.4 0 0 
259 -0.459438 0.8 -0.4 -0.4 0.847665 -0.4 -0.4 0.8 -0.459438 0 0 
260 -0.4 0.8 -0.459438 -0.4 0.847665 -0.4 -0.2 0.8 -0.55098 0 0 
261 -0.2 0.8 -0.55098 -0.4 0.847665 -0.4 -0.2 0.888 -0.4 0 0 
262 -0.2 0.8 -0.55098 -0.2 0.888 -0.4 0 0.8 -0.564912 0 0 
263 0 0.8 -0.564912 -0.2 0.888 -0.4 0 0.934286 -0.4 0 0 
264 0 0.8 -0.564912 0 0.934286 -0.4 0.2 0.8 -0.55098 0 0 
265 0.2 0.8 -0.55098 0 0.934286 -0.4 0.2 0.888 -0.4 0 0 
266 0.2 0.8 -0.55098 0.2 0.888 -0.4 0.4 0.8 -0.459438 0 0 
267 0.4 0.8 -0.459438 0.2 0.888 -0.4 0.4 0.847665 -0.4 0 0 
268 0.4 0.8 -0.459438 0.4 0.847665 -0.4 0.459438 0.8 -0.4 0 0 
269 -0.4 -0.888 -0.2 -0.55098 -0.8 -0.2 -0.4 -0.847665 -0.4 0 0 
270 -0.4 -0.847665 -0.4 -0.55098 -0.8 -0.2 -0.459438 -0.8 -0.4 0 0 
271 -0.2 -0.942857 -0.2 -0.4 -0.847665 -0.4 -0.2 -0.888 -0.4 0 0 
272 -0.2 -0.942857 -0.2 -0.4 -0.888 -0.2 -0.4 -0.847665 -0.4 0 0 
273 0 -0.942857 -0.2 -0.2 -0.888 -0.4 0 -0.934286 -0.4 0 0 
274 0 -0.942857 -0.2 -0.2 -0.942857 -0.2 -0.2 -0.888 -0.4 0 0 
275 0.2 -0.942857 -0.2 0 -0.934286 -0.4 0.2 -0.888 -0.4 0 0 
276 0.2 -0.942857 -0.2 0 -0.942857 -0.2 0 -0.934286 -0.4 0 0 
277 0.4 -0.888 -0.2 0.2 -0.888 -0.4 0.4 -0.847665 -0.4 0 0 
278 0.4 -0.888 -0.2 0.2 -0.942857 -0.2 0.2 -0.888 -0.4 0 0 
279 0.4 -0.847665 -0.4 0.459438 -0.8 -0.4 0.4 -0.888 -0.2 0 0 
280 0.4 -0.888 -0.2 0.459438 -0.8 -0.4 0.55098 -0.8 -0.2 0 0 
281 -0.6 -0.766667 -0.2 -0.766667 -0.6 -0.2 -0.6 -0.688 -0.4 0 0 
282 -0.6 -0.688 -0.4 -0.766667 -0.6 -0.2 -0.688 -0.6 -0.4 0 0 
283 -0.6 -0.688 -0.4 -0.459438 -0.8 -0.4 -0.55098 -0.8 -0.2 0 0 
284 -0.6 -0.688 -0.4 -0.55098 -0.8 -0.2 -0.6 -0.766667 -0.2 0 0 
285 0.6 -0.766667 -0.2 0.55098 -0.8 -0.2 0.459438 -0.8 -0.4 0 0 
286 0.6 -0.766667 -0.2 0.459438 -0.8 -0.4 0.6 -0.688 -0.4 0 0 
287 0.6 -0.688 -0.4 0.688 -0.6 -0.4 0.6 -0.766667 -0.2 0 0 
288 0.6 -0.766667 -0.2 0.688 -0.6 -0.4 0.766667 -0.6 -0.2 0 0 
289 -0.8 -0.55098 -0.2 -0.888 -0.4 -0.2 -0.8 -0.459438 -0.4 0 0 
290 -0.8 -0.459438 -0.4 -0.888 -0.4 -0.2 -0.847665 -0.4 -0.4 0 0 
291 -0.8 -0.459438 -0.4 -0.688 -0.6 -0.4 -0.766667 -0.6 -0.2 0 0 
292 -0.8 -0.459438 -0.4 -0.766667 -0.6 -0.2 -0.8 -0.55098 -0.2 0 0 
293 0.8 -0.55098 -0.2 0.766667 -0.6 -0.2 0.688 -0.6 -0.4 0 0 
294 0.8 -0.55098 -0.2 0.688 -0.6 -0.4 0.8 -0.459438 -0.4 0 0 
295 0.8 -0.459438 -0.4 0.847665 -0.4 -0.4 0.8 -0.55098 -0.2 0 0 
296 0.8 -0.55098 -0.2 0.847665 -0.4 -0.4 0.888 -0.4 -0.2 0 0 
297 -0.888 -0.4 -0.2 -0.888 -0.2 -0.4 -0.847665 -0.4 -0.4 0 0 
298 -0.942857 -0.2 -0.2 -0.888 -0.2 -0.4 -0.888 -0.4 -0.2 0 0 
299 0.888 -0.2 -0.4 0.888 -0.4 -0.2 0.847665 -0.4 -0.4 0 0 
300 0.888 -0.2 -0.4 0.942857 -0.2 -0.2 0.888 -0.4 -0.2 0 0 
301 -0.942857 -0.2 -0.2 -0.934286 0 -0.4 -0.888 -0.2 -0.4 0 0 
302 -0.942857 0 -0.2 -0.934286 0 -0.4 -0.942857 -0.2 -0.2 0 0 
303 0.934286 0 -0.4 0.942857 -0.2 -0.2 0.888 -0.2 -0.4 0 0 
304 0.934286 0 -0.4 0.942857 0 -0.2 0.942857 -0.2 -0.2 0 0 
305 -0.942857 0 -0.2 -0.888 0.2 -0.4 -0.934286 0 -0.4 0 0 
306 -0.942857 0.2 -0.2 -0.888 0.2 -0.4 -0.942857 0 -0.2 0 0 
307 0.888 0.2 -0.4 0.942857 0 -0.2 0.934286 0 -0.4 0 0 
308 0.888 0.2 -0.4 0.942857 0.2 -0.2 0.942857 0 -0.2 0 0 
309 -0.942857 0.2 -0.2 -0.847665 0.4 -0.4 -0.888 0.2 -0.4 0 0 
310 -0.888 0.4 -0.2 -0.847665 0.4 -0.4 -0.942857 0.2 -0.2 0 0 
311 0.847665 0.4 -0.4 0.942857 0.2 -0.2 0.888 0.2 -0.4 0 0 
312 0.847665 0.4 -0.4 0.888 0.4 -0.2 0.942857 0.2 -0.2 0 0 
313 -0.888 0.4 -0.2 -0.8 0.55098 -0.2 -0.847665 0.4 -0.4 0 0 
314 -0.847665 0.4 -0.4 -0.8 0.55098 -0.2 -0.8 0.459438 -0.4 0 0 
315 -0.688 0.6 -0.4 -0.8 0.459438 -0.4 -0.8 0.55098 -0.2 0 0 
316 -0.688 0.6 -0.4 -0.8 0.55098 -0.2 -0.766667 0.6 -0.2 0 0 
317 0.766667 0.6 -0.2 0.8 0.55098 -0.2 0.8 0.459438 -0.4 0 0 
318 0.766667 0.6 -0.2 0.8 0.459438 -0.4 0.688 0.6 -0.4 0 0 
319 0.847665 0.4 -0.4 0.8 0.459438 -0.4 0.888 0.4 -0.2 0 0 
320 0.888 0.4 -0.2 0.8 0.459438 -0.4 0.8 0.55098 -0.2 0 0 
321 -0.766667 0.6 -0.2 -0.6 0.766667 -0.2 -0.688 0.6 -0.4 0 0 
322 -0.688 0.6 -0.4 -0.6 0.766667 -0.2 -0.6 0.688 -0.4 0 0 
323 -0.459438 0.8 -0.4 -0.6 0.688 -0.4 -0.6 0.766667 -0.2 0 0 
324 -0.459438 0.8 -0.4 -0.6 0.766667 -0.2 -0.55098 0.8 -0.2 0 0 
325 0.55098 0.8 -0.2 0.6 0.766667 -0.2 0.6 0.688 -0.4 0 0 
326 0.55098 0.8 -0.2 0.6 0.688 -0.4 0.459438 0.8 -0.4 0 0 
327 0.688 0.6 -0.4 0.6 0.688 -0.4 0.766667 0.6 -0.2 0 0 
328 0.766667 0.6 -0.2 0.6 0.688 -0.4 0.6 0.766667 -0.2 0 0 
329 -0.55098 0.8 -0.2 -0.4 0.888 -0.2 -0.459438 0.8 -0.4 0 0 
330 -0.459438 0.8 -0.4 -0.4 0.888 -0.2 -0.4 0.847665 -0.4 0 0 
331 -0.4 0.847665 -0.4 -0.2 0.942857 -0.2 -0.2 0.888 -0.4 0 0 
332 -0.4 0.888 -0.2 -0.2 0.942857 -0.2 -0.4 0.847665 -0.4 0 0 
333 -0.2 0.888 -0.4 0 0.942857 -0.2 0 0.934286 -0.4 0 0 
334 -0.2 0.942857 -0.2 0 0.942857 -0.2 -0.2 0.888 -0.4 0 0 
335 0 0.934286 -0.4 0.2 0.942857 -0.2 0.2 0.888 -0.4 0 0 
336 0 0.942857 -0.2 0.2 0.942857 -0.2 0 0.934286 -0.4 0 0 
337 0.2 0.888 -0.4 0.4 0.888 -0.2 0.4 0.847665 -0.4 0 0 
338 0.2 0.942857 -0.2 0.4 0.888 -0.2 0.2 0.888 -0.4 0 0 
339 0.459438 0.8 -0.4 0.4 0.847665 -0.4 0.55098 0.8 -0.2 0 0 
340 0.55098 0.8 -0.2 0.4 0.847665 -0.4 0.4 0.888 -0.2 0 0 
341 -0.4 -0.934286 0 -0.564912 -0.8 0 -0.4 -0.888 -0.2 0 0 
342 -0.4 -0.888 -0.2 -0.564912 -0.8 0 -0.55098 -0.8 -0.2 0 0 
343 -0.2 -0.942857 0 -0.4 -0.888 -0.2 -0.2 -0.942857 -0.2 0 0 
344 -0.2 -0.942857 0 -0.4 -0.934286 0 -0.4 -0.888 -0.2 0 0 
345 0 -0.942857 0 -0.2 -0.942857 -0.2 0 -0.942857 -0.2 0 0 
346 0 -0.942857 0 -0.2 -0.942857 0 -0.2 -0.942857 -0.2 0 0 
347 0.2 -0.942857 0 0 -0.942857 -0.2 0.2 -0.942857 -0.2 0 0 
348 0.2 -0.942857 0 0 -0.942857 0 0 -0.942857 -0.2 0 0 
349 0.4 -0.934286 0 0.2 -0.942857 -0.2 0.4 -0.888 -0.2 0 0 
350 0.4 -0.934286 0 0.2 -0.942857 0 0.2 -0.942857 -0.2 0 0 
351 0.4 -0.888 -0.2 0.55098 -0.8 -0.2 0.4 -0.934286 0 0 0 
352 0.4 -0.934286 0 0.55098 -0.8 -0.2 0.564912 -0.8 0 0 0 
353 -0.6 -0.766667 0 -0.766667 -0.6 0 -0.6 -0.766667 -0.2 0 0 
354 -0.6 -0.766667 -0.2 -0.766667 -0.6 0 -0.766667 -0.6 -0.2 0 0 
355 -0.6 -0.766667 -0.2 -0.55098 -0.8 -0.2 -0.564912 -0.8 0 0 0 
356 -0.6 -0.766667 -0.2 -0.564912 -0.8 0 -0.6 -0.766667 0 0 0 
357 0.6 -0.766667 0 0.564912 -0.8 0 0.55098 -0.8 -0.2 0 0 
358 0.6 -0.766667 0 0.55098 -0.8 -0.2 0.6 -0.766667 -0.2 0 0 
359 0.6 -0.766667 -0.2 0.766667 -0.6 -0.2 0.6 -0.766667 0 0 0 
360 0.6 -0.766667 0 0.766667 -0.6 -0.2 0.766667 -0.6 0 0 0 
361 -0.8 -0.564912 0 -0.934286 -0.4 0 -0.8 -0.55098 -0.2 0 0 
362 -0.8 -0.55098 -0.2 -0.934286 -0.4 0 -0.888 -0.4 -0.2 0 0 
363 -0.8 -0.55098 -0.2 -0.766667 -0.6 -0.2 -0.766667 -0.6 0 0 0 
364 -0.8 -0.55098 -0.2 -0.766667 -0.6 0 -0.8 -0.564912 0 0 0 
365 0.8 -0.564912 0 0.766667 -0.6 0 0.766667 -0.6 -0.2 0 0 
366 0.8 -0.564912 0 0.766667 -0.6 -0.2 0.8 -0.55098 -0.2 0 0 
367 0.8 -0.55098 -0.2 0.888 -0.4 -0.2 0.8 -0.564912 0 0 0 
368 0.8 -0.564912 0 0.888 -0.4 -0.2 0.934286 -0.4 0 0 0 
369 -0.934286 -0.4 0 -0.942857 -0.2 -0.2 -0.888 -0.4 -0.2 0 0 
370 -0.942857 -0.2 0 -0.942857 -0.2 -0.2 -0.934286 -0.4 0 0 0 
371 0.942857 -0.2 -0.2 0.934286 -0.4 0 0.888 -0.4 -0.2 0 0 
372 0.942857 -0.2 -0.2 0.942857 -0.2 0 0.934286 -0.4 0 0 0 
373 -0.942857 -0.2 0 -0.942857 0 -0.2 -0.942857 -0.2 -0.2 0 0 
374 -0.942857 0 0 -0.942857 0 -0.2 -0.942857 -0.2 0 0 0 
375 0.942857 0 -0.2 0.942857 -0.2 0 0.942857 -0.2 -0.2 0 0 
376 0.942857 0 -0.2 0.942857 0 0 0.942857 -0.2 0 0 0 
377 -0.942857 0 0 -0.942857 0.2 -0.2 -0.942857 0 -0.2 0 0 
378 -0.942857 0.2 0 -0.942857 0.2 -0.2 -0.942857 0 0 0 0 
379 0.942857 0.2 -0.2 0.942857 0 0 0.942857 0 -0.2 0 0 
380 0.942857 0.2 -0.2 0.942857 0.2 0 0.942857 0 0 0 0 
381 -0.942857 0.2 0 -0.888 0.4 -0.2 -0.942857 0.2 -0.2 0 0 
382 -0.934286 0.4 0 -0.888 0.4 -0.2 -0.942857 0.2 0 0 0 
383 0.888 0.4 -0.2 0.942857 0.2 0 0.942857 0.2 -0.2 0 0 
384 0.888 0.4 -0.2 0.934286 0.4 0 0.942857 0.2 0 0 0 
385 -0.934286 0.4 0 -0.8 0.564912 0 -0.888 0.4 -0.2 0 0 
386 -0.888 0.4 -0.2 -0.8 0.564912 0 -0.8 0.55098 -0.2 0 0 
387 -0.766667 0.6 -0.2 -0.8 0.55098 -0.2 -0.8 0.564912 0 0 0 
388 -0.766667 0.6 -0.2 -0.8 0.564912 0 -0.766667 0.6 0 0 0 
389 0.766667 0.6 0 0.8 0.564912 0 0.8 0.55098 -0.2 0 0 
390 0.766667 0.6 0 0.8 0.55098 -0.2 0.766667 0.6 -0.2 0 0 
391 0.888 0.4 -0.2 0.8 0.55098 -0.2 0.934286 0.4 0 0 0 
392 0.934286 0.4 0 0.8 0.55098 -0.2 0.8 0.564912 0 0 0 
393 -0.766667 0.6 0 -0.6 0.766667 0 -0.766667 0.6 -0.2 0 0 
394 -0.766667 0.6 -0.2 -0.6 0.766667 0 -0.6 0.766667 -0.2 0 0 
395 -0.55098 0.8 -0.2 -0.6 0.766667 -0.2 -0.6 0.766667 0 0 0 
396 -0.55098 0.8 -0.2 -0.6 0.766667 0 -0.564912 0.8 0 0 0 
397 0.564912 0.8 0 0.6 0.766667 0 0.6 0.766667 -0.2 0 0 
398 0.564912 0.8 0 0.6 0.766667 -0.2 0.55098 0.8 -0.2 0 0 
399 0.766667 0.6 -0.2 0.6 0.766667 -0.2 0.766667 0.6 0 0 0 
400 0.766667 0.6 0 0.6 0.766667 -0.2 0.6 0.766667 0 0 0 
401 -0.564912 0.8 0 -0.4 0.934286 0 -0.55098 0.8 -0.2 0 0 
402 -0.55098 0.8 -0.2 -0.4 0.934286 0 -0.4 0.888 -0.2 0 0 
403 -0.4 0.888 -0.2 -0.2 0.942857 0 -0.2 0.942857 -0.2 0 0 
404 -0.4 0.934286 0 -0.2 0.942857 0 -0.4 0.888 -0.2 0 0 
405 -0.2 0.942857 -0.2 0 0.942857 0 0 0.942857 -0.2 0 0 
406 -0.2 0.942857 0 0 0.942857 0 -0.2 0.942857 -0.2 0 0 
407 0 0.942857 -0.2 0.2 0.942857 0 0.2 0.942857 -0.2 0 0 
408 0 0.942857 0 0.2 0.942857 0 0 0.942857 -0.2 0 0 
409 0.2 0.942857 -0.2 0.4 0.934286 0 0.4 0.888 -0.2 0 0 
410 0.2 0.942857 0 0.4 0.934286 0 0.2 0.942857 -0.2 0 0 
411 0.55098 0.8 -0.2 0.4 0.888 -0.2 0.564912 0.8 0 0 0 
412 0.564912 0.8 0 0.4 0.888 -0.2 0.4 0.934286 0 0 0 
413 -0.4 -0.888 0.2 -0.55098 -0.8 0.2 -0.4 -0.934286 0 0 0 
414 -0.4 -0.934286 0 -0.55098 -0.8 0.2 -0.564912 -0.8 0 0 0 
415 -0.2 -0.942857 0.2 -0.4 -0.934286 0 -0.2 -0.942857 0 0 0 
416 -0.2 -0.942857 0.2 -0.4 -0.888 0.2 -0.4 -0.934286 0 0 0 
417 0 -0.942857 0.2 -0.2 -0.942857 0 0 -0.942857 0 0 0 
418 0 -0.942857 0.2 -0.2 -0.942857 0.2 -0.2 -0.942857 0 0 0 
419 0.2 -0.942857 0.2 0 -0.942857 0 0.2 -0.942857 0 0 0 
420 0.2 -0.942857 0.2 0 -0.942857 0.2 0 -0.942857 0 0 0 
421 0.4 -0.888 0.2 0.2 -0.942857 0 0.4 -0.934286 0 0 0 
422 0.4 -0.888 0.2 0.2 -0.942857 0.2 0.2 -0.942857 0 0 0 
423 0.4 -0.934286 0 0.564912 -0.8 0 0.4 -0.888 0.2 0 0 
424 0.4 -0.888 0.2 0.564912 -0.8 0 0.55098 -0.8 0.2 0 0 
425 -0.6 -0.766667 0.2 -0.766667 -0.6 0.2 -0.6 -0.766667 0 0 0 
426 -0.6 -0.766667 0 -0.766667 -0.6 0.2 -0.766667 -0.6 0 0 0 
427 -0.6 -0.766667 0 -0.564912 -0.8 0 -0.55098 -0.8 0.2 0 0 
428 -0.6 -0.766667 0 -0.55098 -0.8 0.2 -0.6 -0.766667 0.2 0 0 
429 0.6 -0.766667 0.2 0.55098 -0.8 0.2 0.564912 -0.8 0 0 0 
430 0.6 -0.766667 0.2 0.564912 -0.8 0 0.6 -0.766667 0 0 0 
431 0.6 -0.766667 0 0.766667 -0.6 0 0.6 -0.766667 0.2 0 0 
432 0.6 -0.766667 0.2 0.766667 -0.6 0 0.766667 -0.6 0.2 0 0 
433 -0.8 -0.55098 0.2 -0.888 -0.4 0.2 -0.8 -0.564912 0 0 0 
434 -0.8 -0.564912 0 -0.888 -0.4 0.2 -0.934286 -0.4 0 0 0 
435 -0.8 -0.564912 0 -0.766667 -0.6 0 -0.766667 -0.6 0.2 0 0 
436 -0.8 -0.564912 0 -0.766667 -0.6 0.2 -0.8 -0.55098 0.2 0 0 
437 0.8 -0.55098 0.2 0.766667 -0.6 0.2 0.766667 -0.6 0 0 0 
438 0.8 -0.55098 0.2 0.766667 -0.6 0 0.8 -0.564912 0 0 0 
439 0.8 -0.564912 0 0.934286 -0.4 0 0.8 -0.55098 0.2 0 0 
440 0.8 -0.55098 0.2 0.934286 -0.4 0 0.888 -0.4 0.2 0 0 
441 -0.888 -0.4 0.2 -0.942857 -0.2 0 -0.934286 -0.4 0 0 0 
442 -0.942857 -0.2 0.2 -0.942857 -0.2 0 -0.888 -0.4 0.2 0 0 
443 0.942857 -0.2 0 0.888 -0.4 0.2 0.934286 -0.4 0 0 0 
444 0.942857 -0.2 0 0.942857 -0.2 0.2 0.888 -0.4 0.2 0 0 
445 -0.942857 -0.2 0.2 -0.942857 0 0 -0.942857 -0.2 0 0 0 
446 -0.942857 0 0.2 -0.942857 0 0 -0.942857 -0.2 0.2 0 0 
447 0.942857 0 0 0.942857 -0.2 0.2 0.942857 -0.2 0 0 0 
448 0.942857 0 0 0.942857 0 0.2 0.942857 -0.2 0.2 0 0 
449 -0.942857 0 0.2 -0.942857 0.2 0 -0.942857 0 0 0 0 
450 -0.942857 0.2 0.2 -0.942857 0.2 0 -0.942857 0 0.2 0 0 
451 0.942857 0.2 0 0.942857 0 0.2 0.942857 0 0 0 0 
452 0.942857 0.2 0 0.942857 0.2 0.2 0.942857 0 0.2 0 0 
453 -0.942857 0.2 0.2 -0.934286 0.4 0 -0.942857 0.2 0 0 0 
454 -0.888 0.4 0.2 -0.934286 0.4 0 -0.942857 0.2 0.2 0 0 
455 0.934286 0.4 0 0.942857 0.2 0.2 0.942857 0.2 0 0 0 
456 0.934286 0.4 0 0.888 0.4 0.2 0.942857 0.2 0.2 0 0 
457 -0.888 0.4 0.2 -0.8 0.55098 0.2 -0.934286 0.4 0 0 0 
458 -0.934286 0.4 0 -0.8 0.55098 0.2 -0.8 0.564912 0 0 0 
459 -0.766667 0.6 0 -0.8 0.564912 0 -0.8 0.55098 0.2 0 0 
460 -0.766667 0.6 0 -0.8 0.55098 0.2 -0.766667 0.6 0.2 0 0 
461 0.766667 0.6 0.2 0.8 0.55098 0.2 0.8 0.564912 0 0 0 
462 0.766667 0.6 0.2 0.8 0.564912 0 0.766667 0.6 0 0 0 
463 0.934286 0.4 0 0.8 0.564912 0 0.888 0.4 0.2 0 0 
464 0.888 0.4 0.2 0.8 0.564912 0 0.8 0.55098 0.2 0 0 
465 -0.766667 0.6 0.2 -0.6 0.766667 0.2 -0.766667 0.6 0 0 0 
466 -0.766667 0.6 0 -0.6 0.766667 0.2 -0.6 0.766667 0 0 0 
467 -0.564912 0.8 0 -0.6 0.766667 0 -0.6 0.766667 0.2 0 0 
468 -0.564912 0.8 0 -0.6 0.766667 0.2 -0.55098 0.8 0.2 0 0 
469 0.55098 0.8 0.2 0.6 0.766667 0.2 0.6 0.766667 0 0 0 
470 0.55098 0.8 0.2 0.6 0.766667 0 0.564912 0.8 0 0 0 
471 0.766667 0.6 0 0.6 0.766667 0 0.766667 0.6 0.2 0 0 
472 0.766667 0.6 0.2 0.6 0.766667 0 0.6 0.766667 0.2 0 0 
473 -0.55098 0.8 0.2 -0.4 0.888 0.2 -0.564912 0.8 0 0 0 
474 -0.564912 0.8 0 -0.4 0.888 0.2 -0.4 0.934286 0 0 0 
475 -0.4 0.934286 0 -0.2 0.942857 0.2 -0.2 0.942857 0 0 0 
476 -0.4 0.888 0.2 -0.2 0.942857 0.2 -0.4 0.934286 0 0 0 
477 -0.2 0.942857 0 0 0.942857 0.2 0 0.942857 0 0 0 
478 -0.2 0.942857 0.2 0 0.942857 0.2 -0.2 0.942857 0 0 0 
479 0 0.942857 0 0.2 0.942857 0.2 0.2 0.942857 0 0 0 
480 0 0.942857 0.2 0.2 0.942857 0.2 0 0.942857 0 0 0 
481 0.2 0.942857 0 0.4 0.888 0.2 0.4 0.934286 0 0 0 
482 0.2 0.942857 0.2 0.4 0.888 0.2 0.2 0.942857 0 0 0 
483 0.564912 0.8 0 0.4 0.934286 0 0.55098 0.8 0.2 0 0 
484 0.55098 0.8 0.2 0.4 0.934286 0 0.4 0.888 0.2 0 0 
485 -0.4 -0.847665 0.4 -0.459438 -0.8 0.4 -0.4 -0.888 0.2 0 0 
486 -0.4 -0.888 0.2 -0.459438 -0.8 0.4 -0.55098 -0.8 0.2 0 0 
487 -0.2 -0.888 0.4 -0.4 -0.888 0.2 -0.2 -0.942857 0.2 0 0 
488 -0.2 -0.888 0.4 -0.4 -0.847665 0.4 -0.4 -0.888 0.2 0 0 
489 0 -0.934286 0.4 -0.2 -0.942857 0.2 0 -0.942857 0.2 0 0 
490 0 -0.934286 0.4 -0.2 -0.888 0.4 -0.2 -0.942857 0.2 0 0 
491 0.2 -0.888 0.4 0 -0.942857 0.2 0.2 -0.942857 0.2 0 0 